REMARK  Name = data/clean_protein_full.pdb
REMARK                            x       y       z     vdW  Elec       q    Type
REMARK                         _______ _______ _______ _____ _____    ______ ____
ATOM      1  CA  TYR A   6      -7.551 -11.355 -17.946  0.00  0.00    +0.000 C 
TER 
REMARK  Name = data/clean_protein_full.pdb
REMARK                            x       y       z     vdW  Elec       q    Type
REMARK                         _______ _______ _______ _____ _____    ______ ____
ATOM      1  CA  LEU A   7      -8.052  -8.804 -20.730  0.00  0.00    +0.000 C 
TER 
REMARK  Name = data/clean_protein_full.pdb
REMARK                            x       y       z     vdW  Elec       q    Type
REMARK                         _______ _______ _______ _____ _____    ______ ____
ATOM      1  CA  GLY A   8     -10.874  -6.691 -19.353  0.00  0.00    +0.000 C 
TER 
REMARK  Name = data/clean_protein_full.pdb
REMARK                            x       y       z     vdW  Elec       q    Type
REMARK                         _______ _______ _______ _____ _____    ______ ____
ATOM      1  CA  GLY A   9      -9.359  -7.332 -15.966  0.00  0.00    +0.000 C 
TER 
REMARK  Name = data/clean_protein_full.pdb
REMARK                            x       y       z     vdW  Elec       q    Type
REMARK                         _______ _______ _______ _____ _____    ______ ____
ATOM      1  CA  ALA A  10      -5.806  -6.508 -16.946  0.00  0.00    +0.000 C 
TER 
REMARK  Name = data/clean_protein_full.pdb
REMARK                            x       y       z     vdW  Elec       q    Type
REMARK                         _______ _______ _______ _____ _____    ______ ____
ATOM      1  CA  ILE A  11      -7.024  -3.514 -18.905  0.00  0.00    +0.000 C 
TER 
REMARK  Name = data/clean_protein_full.pdb
REMARK                            x       y       z     vdW  Elec       q    Type
REMARK                         _______ _______ _______ _____ _____    ______ ____
ATOM      1  CA  LEU A  12     -10.023  -2.071 -17.056  0.00  0.00    +0.000 C 
TER 
REMARK  Name = data/clean_protein_full.pdb
REMARK                            x       y       z     vdW  Elec       q    Type
REMARK                         _______ _______ _______ _____ _____    ______ ____
ATOM      1  CA  ALA A  13      -7.313  -1.820 -14.420  0.00  0.00    +0.000 C 
TER 
REMARK  Name = data/clean_protein_full.pdb
REMARK                            x       y       z     vdW  Elec       q    Type
REMARK                         _______ _______ _______ _____ _____    ______ ____
ATOM      1  CA  GLU A  14      -4.608  -0.058 -16.424  0.00  0.00    +0.000 C 
TER 
REMARK  Name = data/clean_protein_full.pdb
REMARK                            x       y       z     vdW  Elec       q    Type
REMARK                         _______ _______ _______ _____ _____    ______ ____
ATOM      1  CA  VAL A  15      -7.745   1.729 -17.607  0.00  0.00    +0.000 C 
TER 
REMARK  Name = data/clean_protein_full.pdb
REMARK                            x       y       z     vdW  Elec       q    Type
REMARK                         _______ _______ _______ _____ _____    ______ ____
ATOM      1  CA  ILE A  16      -9.218   3.593 -14.701  0.00  0.00    +0.000 C 
TER 
REMARK  Name = data/clean_protein_full.pdb
REMARK                            x       y       z     vdW  Elec       q    Type
REMARK                         _______ _______ _______ _____ _____    ______ ____
ATOM      1  CA  GLY A  17      -5.557   3.306 -13.937  0.00  0.00    +0.000 C 
TER 
REMARK  Name = data/clean_protein_full.pdb
REMARK                            x       y       z     vdW  Elec       q    Type
REMARK                         _______ _______ _______ _____ _____    ______ ____
ATOM      1  CA  THR A  18      -4.588   5.718 -16.625  0.00  0.00    +0.000 C 
TER 
REMARK  Name = data/clean_protein_full.pdb
REMARK                            x       y       z     vdW  Elec       q    Type
REMARK                         _______ _______ _______ _____ _____    ______ ____
ATOM      1  CA  THR A  19      -7.942   7.343 -15.796  0.00  0.00    +0.000 C 
TER 
REMARK  Name = data/clean_protein_full.pdb
REMARK                            x       y       z     vdW  Elec       q    Type
REMARK                         _______ _______ _______ _____ _____    ______ ____
ATOM      1  CA  LEU A  20      -7.150   8.676 -12.337  0.00  0.00    +0.000 C 
TER 
REMARK  Name = data/clean_protein_full.pdb
REMARK                            x       y       z     vdW  Elec       q    Type
REMARK                         _______ _______ _______ _____ _____    ______ ____
ATOM      1  CA  MET A  21      -3.600   9.519 -13.302  0.00  0.00    +0.000 C 
TER 
REMARK  Name = data/clean_protein_full.pdb
REMARK                            x       y       z     vdW  Elec       q    Type
REMARK                         _______ _______ _______ _____ _____    ______ ____
ATOM      1  CA  LYS A  22      -4.264  12.080 -15.997  0.00  0.00    +0.000 C 
TER 
REMARK  Name = data/clean_protein_full.pdb
REMARK                            x       y       z     vdW  Elec       q    Type
REMARK                         _______ _______ _______ _____ _____    ______ ____
ATOM      1  CA  PHE A  23      -7.156  12.757 -13.592  0.00  0.00    +0.000 C 
TER 
REMARK  Name = data/clean_protein_full.pdb
REMARK                            x       y       z     vdW  Elec       q    Type
REMARK                         _______ _______ _______ _____ _____    ______ ____
ATOM      1  CA  SER A  24      -6.187  15.343 -10.951  0.00  0.00    +0.000 C 
TER 
REMARK  Name = data/clean_protein_full.pdb
REMARK                            x       y       z     vdW  Elec       q    Type
REMARK                         _______ _______ _______ _____ _____    ______ ____
ATOM      1  CA  GLU A  25      -2.822  13.623 -10.821  0.00  0.00    +0.000 C 
TER 
REMARK  Name = data/clean_protein_full.pdb
REMARK                            x       y       z     vdW  Elec       q    Type
REMARK                         _______ _______ _______ _____ _____    ______ ____
ATOM      1  CA  GLY A  26      -1.821  17.035  -9.493  0.00  0.00    +0.000 C 
TER 
REMARK  Name = data/clean_protein_full.pdb
REMARK                            x       y       z     vdW  Elec       q    Type
REMARK                         _______ _______ _______ _____ _____    ______ ____
ATOM      1  CA  PHE A  27      -4.566  16.503  -6.991  0.00  0.00    +0.000 C 
TER 
REMARK  Name = data/clean_protein_full.pdb
REMARK                            x       y       z     vdW  Elec       q    Type
REMARK                         _______ _______ _______ _____ _____    ______ ____
ATOM      1  CA  THR A  28      -5.080  13.621  -4.594  0.00  0.00    +0.000 C 
TER 
REMARK  Name = data/clean_protein_full.pdb
REMARK                            x       y       z     vdW  Elec       q    Type
REMARK                         _______ _______ _______ _____ _____    ______ ____
ATOM      1  CA  ARG A  29      -7.309  15.086  -1.830  0.00  0.00    +0.000 C 
TER 
REMARK  Name = data/clean_protein_full.pdb
REMARK                            x       y       z     vdW  Elec       q    Type
REMARK                         _______ _______ _______ _____ _____    ______ ____
ATOM      1  CA  LEU A  30     -11.035  14.151  -1.726  0.00  0.00    +0.000 C 
TER 
REMARK  Name = data/clean_protein_full.pdb
REMARK                            x       y       z     vdW  Elec       q    Type
REMARK                         _______ _______ _______ _____ _____    ______ ____
ATOM      1  CA  TRP A  31     -13.106  11.741  -3.922  0.00  0.00    +0.000 C 
TER 
REMARK  Name = data/clean_protein_full.pdb
REMARK                            x       y       z     vdW  Elec       q    Type
REMARK                         _______ _______ _______ _____ _____    ______ ____
ATOM      1  CA  PRO A  32     -10.936  11.968  -7.073  0.00  0.00    +0.000 C 
TER 
REMARK  Name = data/clean_protein_full.pdb
REMARK                            x       y       z     vdW  Elec       q    Type
REMARK                         _______ _______ _______ _____ _____    ______ ____
ATOM      1  CA  SER A  33      -7.629  10.194  -6.426  0.00  0.00    +0.000 C 
TER 
REMARK  Name = data/clean_protein_full.pdb
REMARK                            x       y       z     vdW  Elec       q    Type
REMARK                         _______ _______ _______ _____ _____    ______ ____
ATOM      1  CA  VAL A  34      -8.338   7.579  -3.768  0.00  0.00    +0.000 C 
TER 
REMARK  Name = data/clean_protein_full.pdb
REMARK                            x       y       z     vdW  Elec       q    Type
REMARK                         _______ _______ _______ _____ _____    ______ ____
ATOM      1  CA  GLY A  35     -11.489   6.841  -5.763  0.00  0.00    +0.000 C 
TER 
REMARK  Name = data/clean_protein_full.pdb
REMARK                            x       y       z     vdW  Elec       q    Type
REMARK                         _______ _______ _______ _____ _____    ______ ____
ATOM      1  CA  THR A  36     -10.099   5.800  -9.138  0.00  0.00    +0.000 C 
TER 
REMARK  Name = data/clean_protein_full.pdb
REMARK                            x       y       z     vdW  Elec       q    Type
REMARK                         _______ _______ _______ _____ _____    ______ ____
ATOM      1  CA  ILE A  37      -7.361   4.518  -6.931  0.00  0.00    +0.000 C 
TER 
REMARK  Name = data/clean_protein_full.pdb
REMARK                            x       y       z     vdW  Elec       q    Type
REMARK                         _______ _______ _______ _____ _____    ______ ____
ATOM      1  CA  ILE A  38      -9.722   1.967  -5.377  0.00  0.00    +0.000 C 
TER 
REMARK  Name = data/clean_protein_full.pdb
REMARK                            x       y       z     vdW  Elec       q    Type
REMARK                         _______ _______ _______ _____ _____    ______ ____
ATOM      1  CA  CYS A  39      -9.631   0.763  -8.971  0.00  0.00    +0.000 C 
TER 
REMARK  Name = data/clean_protein_full.pdb
REMARK                            x       y       z     vdW  Elec       q    Type
REMARK                         _______ _______ _______ _____ _____    ______ ____
ATOM      1  CA  TYR A  40      -5.843   0.858  -9.075  0.00  0.00    +0.000 C 
TER 
REMARK  Name = data/clean_protein_full.pdb
REMARK                            x       y       z     vdW  Elec       q    Type
REMARK                         _______ _______ _______ _____ _____    ______ ____
ATOM      1  CA  CYS A  41      -5.978  -1.377  -6.035  0.00  0.00    +0.000 C 
TER 
REMARK  Name = data/clean_protein_full.pdb
REMARK                            x       y       z     vdW  Elec       q    Type
REMARK                         _______ _______ _______ _____ _____    ______ ____
ATOM      1  CA  ALA A  42      -8.346  -3.774  -7.678  0.00  0.00    +0.000 C 
TER 
REMARK  Name = data/clean_protein_full.pdb
REMARK                            x       y       z     vdW  Elec       q    Type
REMARK                         _______ _______ _______ _____ _____    ______ ____
ATOM      1  CA  SER A  43      -5.779  -3.427 -10.464  0.00  0.00    +0.000 C 
TER 
REMARK  Name = data/clean_protein_full.pdb
REMARK                            x       y       z     vdW  Elec       q    Type
REMARK                         _______ _______ _______ _____ _____    ______ ____
ATOM      1  CA  PHE A  44      -2.620  -4.494  -8.625  0.00  0.00    +0.000 C 
TER 
REMARK  Name = data/clean_protein_full.pdb
REMARK                            x       y       z     vdW  Elec       q    Type
REMARK                         _______ _______ _______ _____ _____    ______ ____
ATOM      1  CA  TRP A  45      -4.574  -7.462  -7.316  0.00  0.00    +0.000 C 
TER 
REMARK  Name = data/clean_protein_full.pdb
REMARK                            x       y       z     vdW  Elec       q    Type
REMARK                         _______ _______ _______ _____ _____    ______ ____
ATOM      1  CA  LEU A  46      -6.252  -8.139 -10.636  0.00  0.00    +0.000 C 
TER 
REMARK  Name = data/clean_protein_full.pdb
REMARK                            x       y       z     vdW  Elec       q    Type
REMARK                         _______ _______ _______ _____ _____    ______ ____
ATOM      1  CA  LEU A  47      -2.860  -8.310 -12.304  0.00  0.00    +0.000 C 
TER 
REMARK  Name = data/clean_protein_full.pdb
REMARK                            x       y       z     vdW  Elec       q    Type
REMARK                         _______ _______ _______ _____ _____    ______ ____
ATOM      1  CA  ALA A  48      -1.570 -10.463  -9.497  0.00  0.00    +0.000 C 
TER 
REMARK  Name = data/clean_protein_full.pdb
REMARK                            x       y       z     vdW  Elec       q    Type
REMARK                         _______ _______ _______ _____ _____    ______ ____
ATOM      1  CA  GLN A  49      -4.794 -12.518  -9.688  0.00  0.00    +0.000 C 
TER 
REMARK  Name = data/clean_protein_full.pdb
REMARK                            x       y       z     vdW  Elec       q    Type
REMARK                         _______ _______ _______ _____ _____    ______ ____
ATOM      1  CA  THR A  50      -4.500 -12.851 -13.435  0.00  0.00    +0.000 C 
TER 
REMARK  Name = data/clean_protein_full.pdb
REMARK                            x       y       z     vdW  Elec       q    Type
REMARK                         _______ _______ _______ _____ _____    ______ ____
ATOM      1  CA  LEU A  51      -0.787 -13.474 -12.947  0.00  0.00    +0.000 C 
TER 
REMARK  Name = data/clean_protein_full.pdb
REMARK                            x       y       z     vdW  Elec       q    Type
REMARK                         _______ _______ _______ _____ _____    ______ ____
ATOM      1  CA  ALA A  52      -2.162 -17.008 -12.855  0.00  0.00    +0.000 C 
TER 
REMARK  Name = data/clean_protein_full.pdb
REMARK                            x       y       z     vdW  Elec       q    Type
REMARK                         _______ _______ _______ _____ _____    ______ ____
ATOM      1  CA  TYR A  53      -1.888 -19.349 -15.855  0.00  0.00    +0.000 C 
TER 
REMARK  Name = data/clean_protein_full.pdb
REMARK                            x       y       z     vdW  Elec       q    Type
REMARK                         _______ _______ _______ _____ _____    ______ ____
ATOM      1  CA  ILE A  54       0.776 -17.092 -17.465  0.00  0.00    +0.000 C 
TER 
REMARK  Name = data/clean_protein_full.pdb
REMARK                            x       y       z     vdW  Elec       q    Type
REMARK                         _______ _______ _______ _____ _____    ______ ____
ATOM      1  CA  PRO A  55       3.738 -15.279 -15.839  0.00  0.00    +0.000 C 
TER 
REMARK  Name = data/clean_protein_full.pdb
REMARK                            x       y       z     vdW  Elec       q    Type
REMARK                         _______ _______ _______ _____ _____    ______ ____
ATOM      1  CA  THR A  56       5.439 -11.899 -16.476  0.00  0.00    +0.000 C 
TER 
REMARK  Name = data/clean_protein_full.pdb
REMARK                            x       y       z     vdW  Elec       q    Type
REMARK                         _______ _______ _______ _____ _____    ______ ____
ATOM      1  CA  GLY A  57       6.155 -11.565 -20.220  0.00  0.00    +0.000 C 
TER 
REMARK  Name = data/clean_protein_full.pdb
REMARK                            x       y       z     vdW  Elec       q    Type
REMARK                         _______ _______ _______ _____ _____    ______ ____
ATOM      1  CA  ILE A  58       3.019 -11.838 -22.423  0.00  0.00    +0.000 C 
TER 
REMARK  Name = data/clean_protein_full.pdb
REMARK                            x       y       z     vdW  Elec       q    Type
REMARK                         _______ _______ _______ _____ _____    ______ ____
ATOM      1  CA  ALA A  59       0.644  -9.489 -20.747  0.00  0.00    +0.000 C 
TER 
REMARK  Name = data/clean_protein_full.pdb
REMARK                            x       y       z     vdW  Elec       q    Type
REMARK                         _______ _______ _______ _____ _____    ______ ____
ATOM      1  CA  TYR A  60       3.624  -7.134 -20.258  0.00  0.00    +0.000 C 
TER 
REMARK  Name = data/clean_protein_full.pdb
REMARK                            x       y       z     vdW  Elec       q    Type
REMARK                         _______ _______ _______ _____ _____    ______ ____
ATOM      1  CA  ALA A  61       3.334  -6.954 -23.989  0.00  0.00    +0.000 C 
TER 
REMARK  Name = data/clean_protein_full.pdb
REMARK                            x       y       z     vdW  Elec       q    Type
REMARK                         _______ _______ _______ _____ _____    ______ ____
ATOM      1  CA  ILE A  62      -0.422  -6.661 -24.351  0.00  0.00    +0.000 C 
TER 
REMARK  Name = data/clean_protein_full.pdb
REMARK                            x       y       z     vdW  Elec       q    Type
REMARK                         _______ _______ _______ _____ _____    ______ ____
ATOM      1  CA  TRP A  63      -0.807  -4.811 -21.044  0.00  0.00    +0.000 C 
TER 
REMARK  Name = data/clean_protein_full.pdb
REMARK                            x       y       z     vdW  Elec       q    Type
REMARK                         _______ _______ _______ _____ _____    ______ ____
ATOM      1  CA  SER A  64       1.432  -2.145 -22.540  0.00  0.00    +0.000 C 
TER 
REMARK  Name = data/clean_protein_full.pdb
REMARK                            x       y       z     vdW  Elec       q    Type
REMARK                         _______ _______ _______ _____ _____    ______ ____
ATOM      1  CA  GLY A  65       0.067  -3.107 -25.999  0.00  0.00    +0.000 C 
TER 
REMARK  Name = data/clean_protein_full.pdb
REMARK                            x       y       z     vdW  Elec       q    Type
REMARK                         _______ _______ _______ _____ _____    ______ ____
ATOM      1  CA  VAL A  66      -3.679  -3.259 -25.518  0.00  0.00    +0.000 C 
TER 
REMARK  Name = data/clean_protein_full.pdb
REMARK                            x       y       z     vdW  Elec       q    Type
REMARK                         _______ _______ _______ _____ _____    ______ ____
ATOM      1  CA  GLY A  67      -2.119  -0.827 -23.109  0.00  0.00    +0.000 C 
TER 
REMARK  Name = data/clean_protein_full.pdb
REMARK                            x       y       z     vdW  Elec       q    Type
REMARK                         _______ _______ _______ _____ _____    ______ ____
ATOM      1  CA  ILE A  68      -2.359   1.314 -26.210  0.00  0.00    +0.000 C 
TER 
REMARK  Name = data/clean_protein_full.pdb
REMARK                            x       y       z     vdW  Elec       q    Type
REMARK                         _______ _______ _______ _____ _____    ______ ____
ATOM      1  CA  VAL A  69      -6.105   0.869 -26.638  0.00  0.00    +0.000 C 
TER 
REMARK  Name = data/clean_protein_full.pdb
REMARK                            x       y       z     vdW  Elec       q    Type
REMARK                         _______ _______ _______ _____ _____    ______ ____
ATOM      1  CA  LEU A  70      -5.740   2.375 -23.203  0.00  0.00    +0.000 C 
TER 
REMARK  Name = data/clean_protein_full.pdb
REMARK                            x       y       z     vdW  Elec       q    Type
REMARK                         _______ _______ _______ _____ _____    ______ ____
ATOM      1  CA  ILE A  71      -3.564   4.993 -24.987  0.00  0.00    +0.000 C 
TER 
REMARK  Name = data/clean_protein_full.pdb
REMARK                            x       y       z     vdW  Elec       q    Type
REMARK                         _______ _______ _______ _____ _____    ______ ____
ATOM      1  CA  SER A  72      -6.809   6.306 -26.444  0.00  0.00    +0.000 C 
TER 
REMARK  Name = data/clean_protein_full.pdb
REMARK                            x       y       z     vdW  Elec       q    Type
REMARK                         _______ _______ _______ _____ _____    ______ ____
ATOM      1  CA  LEU A  73      -8.369   5.912 -23.005  0.00  0.00    +0.000 C 
TER 
REMARK  Name = data/clean_protein_full.pdb
REMARK                            x       y       z     vdW  Elec       q    Type
REMARK                         _______ _______ _______ _____ _____    ______ ____
ATOM      1  CA  LEU A  74      -5.376   7.880 -21.656  0.00  0.00    +0.000 C 
TER 
REMARK  Name = data/clean_protein_full.pdb
REMARK                            x       y       z     vdW  Elec       q    Type
REMARK                         _______ _______ _______ _____ _____    ______ ____
ATOM      1  CA  SER A  75      -6.922  10.574 -23.754  0.00  0.00    +0.000 C 
TER 
REMARK  Name = data/clean_protein_full.pdb
REMARK                            x       y       z     vdW  Elec       q    Type
REMARK                         _______ _______ _______ _____ _____    ______ ____
ATOM      1  CA  TRP A  76     -10.427   9.112 -23.366  0.00  0.00    +0.000 C 
TER 
REMARK  Name = data/clean_protein_full.pdb
REMARK                            x       y       z     vdW  Elec       q    Type
REMARK                         _______ _______ _______ _____ _____    ______ ____
ATOM      1  CA  GLY A  77     -10.376  12.433 -21.526  0.00  0.00    +0.000 C 
TER 
REMARK  Name = data/clean_protein_full.pdb
REMARK                            x       y       z     vdW  Elec       q    Type
REMARK                         _______ _______ _______ _____ _____    ______ ____
ATOM      1  CA  PHE A  78      -8.031  15.478 -21.867  0.00  0.00    +0.000 C 
TER 
REMARK  Name = data/clean_protein_full.pdb
REMARK                            x       y       z     vdW  Elec       q    Type
REMARK                         _______ _______ _______ _____ _____    ______ ____
ATOM      1  CA  PHE A  79      -6.780  15.876 -25.449  0.00  0.00    +0.000 C 
TER 
REMARK  Name = data/clean_protein_full.pdb
REMARK                            x       y       z     vdW  Elec       q    Type
REMARK                         _______ _______ _______ _____ _____    ______ ____
ATOM      1  CA  GLY A  80      -3.495  17.667 -24.845  0.00  0.00    +0.000 C 
TER 
REMARK  Name = data/clean_protein_full.pdb
REMARK                            x       y       z     vdW  Elec       q    Type
REMARK                         _______ _______ _______ _____ _____    ______ ____
ATOM      1  CA  GLN A  81      -1.728  16.650 -28.077  0.00  0.00    +0.000 C 
TER 
REMARK  Name = data/clean_protein_full.pdb
REMARK                            x       y       z     vdW  Elec       q    Type
REMARK                         _______ _______ _______ _____ _____    ______ ____
ATOM      1  CA  ARG A  82       0.645  19.583 -27.695  0.00  0.00    +0.000 C 
TER 
REMARK  Name = data/clean_protein_full.pdb
REMARK                            x       y       z     vdW  Elec       q    Type
REMARK                         _______ _______ _______ _____ _____    ______ ____
ATOM      1  CA  LEU A  83       3.465  17.979 -29.686  0.00  0.00    +0.000 C 
TER 
REMARK  Name = data/clean_protein_full.pdb
REMARK                            x       y       z     vdW  Elec       q    Type
REMARK                         _______ _______ _______ _____ _____    ______ ____
ATOM      1  CA  ASP A  84       5.067  17.320 -33.106  0.00  0.00    +0.000 C 
TER 
REMARK  Name = data/clean_protein_full.pdb
REMARK                            x       y       z     vdW  Elec       q    Type
REMARK                         _______ _______ _______ _____ _____    ______ ____
ATOM      1  CA  LEU A  85       3.454  13.991 -34.046  0.00  0.00    +0.000 C 
TER 
REMARK  Name = data/clean_protein_full.pdb
REMARK                            x       y       z     vdW  Elec       q    Type
REMARK                         _______ _______ _______ _____ _____    ______ ____
ATOM      1  CA  PRO A  86       0.534  15.421 -36.045  0.00  0.00    +0.000 C 
TER 
REMARK  Name = data/clean_protein_full.pdb
REMARK                            x       y       z     vdW  Elec       q    Type
REMARK                         _______ _______ _______ _____ _____    ______ ____
ATOM      1  CA  ALA A  87      -2.088  13.729 -33.940  0.00  0.00    +0.000 C 
TER 
REMARK  Name = data/clean_protein_full.pdb
REMARK                            x       y       z     vdW  Elec       q    Type
REMARK                         _______ _______ _______ _____ _____    ______ ____
ATOM      1  CA  ILE A  88      -2.858  10.424 -35.638  0.00  0.00    +0.000 C 
TER 
REMARK  Name = data/clean_protein_full.pdb
REMARK                            x       y       z     vdW  Elec       q    Type
REMARK                         _______ _______ _______ _____ _____    ______ ____
ATOM      1  CA  ILE A  89       0.426  10.328 -37.675  0.00  0.00    +0.000 C 
TER 
REMARK  Name = data/clean_protein_full.pdb
REMARK                            x       y       z     vdW  Elec       q    Type
REMARK                         _______ _______ _______ _____ _____    ______ ____
ATOM      1  CA  GLY A  90       3.352  11.281 -35.490  0.00  0.00    +0.000 C 
TER 
REMARK  Name = data/clean_protein_full.pdb
REMARK                            x       y       z     vdW  Elec       q    Type
REMARK                         _______ _______ _______ _____ _____    ______ ____
ATOM      1  CA  MET A  91       2.102   9.335 -32.517  0.00  0.00    +0.000 C 
TER 
REMARK  Name = data/clean_protein_full.pdb
REMARK                            x       y       z     vdW  Elec       q    Type
REMARK                         _______ _______ _______ _____ _____    ______ ____
ATOM      1  CA  MET A  92       1.548   6.458 -34.967  0.00  0.00    +0.000 C 
TER 
REMARK  Name = data/clean_protein_full.pdb
REMARK                            x       y       z     vdW  Elec       q    Type
REMARK                         _______ _______ _______ _____ _____    ______ ____
ATOM      1  CA  LEU A  93       5.198   5.547 -35.336  0.00  0.00    +0.000 C 
TER 
REMARK  Name = data/clean_protein_full.pdb
REMARK                            x       y       z     vdW  Elec       q    Type
REMARK                         _______ _______ _______ _____ _____    ______ ____
ATOM      1  CA  ILE A  94       6.198   6.577 -31.806  0.00  0.00    +0.000 C 
TER 
REMARK  Name = data/clean_protein_full.pdb
REMARK                            x       y       z     vdW  Elec       q    Type
REMARK                         _______ _______ _______ _____ _____    ______ ____
ATOM      1  CA  CYS A  95       3.933   4.487 -29.605  0.00  0.00    +0.000 C 
TER 
REMARK  Name = data/clean_protein_full.pdb
REMARK                            x       y       z     vdW  Elec       q    Type
REMARK                         _______ _______ _______ _____ _____    ______ ____
ATOM      1  CA  ALA A  96       3.753   1.823 -32.267  0.00  0.00    +0.000 C 
TER 
REMARK  Name = data/clean_protein_full.pdb
REMARK                            x       y       z     vdW  Elec       q    Type
REMARK                         _______ _______ _______ _____ _____    ______ ____
ATOM      1  CA  GLY A  97       7.483   1.268 -32.405  0.00  0.00    +0.000 C 
TER 
REMARK  Name = data/clean_protein_full.pdb
REMARK                            x       y       z     vdW  Elec       q    Type
REMARK                         _______ _______ _______ _____ _____    ______ ____
ATOM      1  CA  VAL A  98       8.223   0.672 -28.760  0.00  0.00    +0.000 C 
TER 
REMARK  Name = data/clean_protein_full.pdb
REMARK                            x       y       z     vdW  Elec       q    Type
REMARK                         _______ _______ _______ _____ _____    ______ ____
ATOM      1  CA  LEU A  99       4.863  -0.993 -28.455  0.00  0.00    +0.000 C 
TER 
REMARK  Name = data/clean_protein_full.pdb
REMARK                            x       y       z     vdW  Elec       q    Type
REMARK                         _______ _______ _______ _____ _____    ______ ____
ATOM      1  CA  ILE A 100       5.501  -3.503 -31.140  0.00  0.00    +0.000 C 
TER 
REMARK  Name = data/clean_protein_full.pdb
REMARK                            x       y       z     vdW  Elec       q    Type
REMARK                         _______ _______ _______ _____ _____    ______ ____
ATOM      1  CA  ILE A 101       8.942  -4.529 -29.940  0.00  0.00    +0.000 C 
TER 
REMARK  Name = data/clean_protein_full.pdb
REMARK                            x       y       z     vdW  Elec       q    Type
REMARK                         _______ _______ _______ _____ _____    ______ ____
ATOM      1  CA  ASN A 102       7.558  -4.434 -26.429  0.00  0.00    +0.000 C 
TER 
REMARK  Name = data/clean_protein_full.pdb
REMARK                            x       y       z     vdW  Elec       q    Type
REMARK                         _______ _______ _______ _____ _____    ______ ____
ATOM      1  CA  LEU A 103       4.812  -6.926 -27.315  0.00  0.00    +0.000 C 
TER 
REMARK  Name = data/clean_protein_full.pdb
REMARK                            x       y       z     vdW  Elec       q    Type
REMARK                         _______ _______ _______ _____ _____    ______ ____
ATOM      1  CA  LEU A 104       7.367  -9.319 -28.757  0.00  0.00    +0.000 C 
TER 
REMARK  Name = data/clean_protein_full.pdb
REMARK                            x       y       z     vdW  Elec       q    Type
REMARK                         _______ _______ _______ _____ _____    ______ ____
ATOM      1  CA  SER A 105      10.672  -8.138 -27.337  0.00  0.00    +0.000 C 
TER 
REMARK  Name = data/clean_protein_full.pdb
REMARK                            x       y       z     vdW  Elec       q    Type
REMARK                         _______ _______ _______ _____ _____    ______ ____
ATOM      1  CA  TYR B   4      15.600  13.642 -18.491  0.00  0.00    +0.000 C 
TER 
REMARK  Name = data/clean_protein_full.pdb
REMARK                            x       y       z     vdW  Elec       q    Type
REMARK                         _______ _______ _______ _____ _____    ______ ____
ATOM      1  CA  ILE B   5      13.260  14.735 -15.693  0.00  0.00    +0.000 C 
TER 
REMARK  Name = data/clean_protein_full.pdb
REMARK                            x       y       z     vdW  Elec       q    Type
REMARK                         _______ _______ _______ _____ _____    ______ ____
ATOM      1  CA  TYR B   6       9.821  13.238 -16.323  0.00  0.00    +0.000 C 
TER 
REMARK  Name = data/clean_protein_full.pdb
REMARK                            x       y       z     vdW  Elec       q    Type
REMARK                         _______ _______ _______ _____ _____    ______ ____
ATOM      1  CA  LEU B   7      10.501   9.665 -17.301  0.00  0.00    +0.000 C 
TER 
REMARK  Name = data/clean_protein_full.pdb
REMARK                            x       y       z     vdW  Elec       q    Type
REMARK                         _______ _______ _______ _____ _____    ______ ____
ATOM      1  CA  GLY B   8      13.555  10.343 -15.141  0.00  0.00    +0.000 C 
TER 
REMARK  Name = data/clean_protein_full.pdb
REMARK                            x       y       z     vdW  Elec       q    Type
REMARK                         _______ _______ _______ _____ _____    ______ ____
ATOM      1  CA  GLY B   9      11.778  10.550 -11.854  0.00  0.00    +0.000 C 
TER 
REMARK  Name = data/clean_protein_full.pdb
REMARK                            x       y       z     vdW  Elec       q    Type
REMARK                         _______ _______ _______ _____ _____    ______ ____
ATOM      1  CA  ALA B  10       9.364   8.381 -13.821  0.00  0.00    +0.000 C 
TER 
REMARK  Name = data/clean_protein_full.pdb
REMARK                            x       y       z     vdW  Elec       q    Type
REMARK                         _______ _______ _______ _____ _____    ______ ____
ATOM      1  CA  ILE B  11      10.671   5.169 -15.352  0.00  0.00    +0.000 C 
TER 
REMARK  Name = data/clean_protein_full.pdb
REMARK                            x       y       z     vdW  Elec       q    Type
REMARK                         _______ _______ _______ _____ _____    ______ ____
ATOM      1  CA  LEU B  12      13.503   5.541 -12.908  0.00  0.00    +0.000 C 
TER 
REMARK  Name = data/clean_protein_full.pdb
REMARK                            x       y       z     vdW  Elec       q    Type
REMARK                         _______ _______ _______ _____ _____    ______ ____
ATOM      1  CA  ALA B  13      11.175   5.503  -9.920  0.00  0.00    +0.000 C 
TER 
REMARK  Name = data/clean_protein_full.pdb
REMARK                            x       y       z     vdW  Elec       q    Type
REMARK                         _______ _______ _______ _____ _____    ______ ____
ATOM      1  CA  GLU B  14      10.074   2.123 -11.221  0.00  0.00    +0.000 C 
TER 
REMARK  Name = data/clean_protein_full.pdb
REMARK                            x       y       z     vdW  Elec       q    Type
REMARK                         _______ _______ _______ _____ _____    ______ ____
ATOM      1  CA  VAL B  15      13.299   1.369 -12.827  0.00  0.00    +0.000 C 
TER 
REMARK  Name = data/clean_protein_full.pdb
REMARK                            x       y       z     vdW  Elec       q    Type
REMARK                         _______ _______ _______ _____ _____    ______ ____
ATOM      1  CA  ILE B  16      13.482   0.216  -9.254  0.00  0.00    +0.000 C 
TER 
REMARK  Name = data/clean_protein_full.pdb
REMARK                            x       y       z     vdW  Elec       q    Type
REMARK                         _______ _______ _______ _____ _____    ______ ____
ATOM      1  CA  GLY B  17       9.668  -0.339  -9.305  0.00  0.00    +0.000 C 
TER 
REMARK  Name = data/clean_protein_full.pdb
REMARK                            x       y       z     vdW  Elec       q    Type
REMARK                         _______ _______ _______ _____ _____    ______ ____
ATOM      1  CA  THR B  18      10.691  -3.005 -11.696  0.00  0.00    +0.000 C 
TER 
REMARK  Name = data/clean_protein_full.pdb
REMARK                            x       y       z     vdW  Elec       q    Type
REMARK                         _______ _______ _______ _____ _____    ______ ____
ATOM      1  CA  THR B  19      13.657  -4.508  -9.838  0.00  0.00    +0.000 C 
TER 
REMARK  Name = data/clean_protein_full.pdb
REMARK                            x       y       z     vdW  Elec       q    Type
REMARK                         _______ _______ _______ _____ _____    ______ ____
ATOM      1  CA  LEU B  20      11.855  -4.894  -6.561  0.00  0.00    +0.000 C 
TER 
REMARK  Name = data/clean_protein_full.pdb
REMARK                            x       y       z     vdW  Elec       q    Type
REMARK                         _______ _______ _______ _____ _____    ______ ____
ATOM      1  CA  MET B  21       8.485  -6.411  -7.491  0.00  0.00    +0.000 C 
TER 
REMARK  Name = data/clean_protein_full.pdb
REMARK                            x       y       z     vdW  Elec       q    Type
REMARK                         _______ _______ _______ _____ _____    ______ ____
ATOM      1  CA  LYS B  22      10.525  -8.134 -10.159  0.00  0.00    +0.000 C 
TER 
REMARK  Name = data/clean_protein_full.pdb
REMARK                            x       y       z     vdW  Elec       q    Type
REMARK                         _______ _______ _______ _____ _____    ______ ____
ATOM      1  CA  PHE B  23      11.915 -10.205  -7.274  0.00  0.00    +0.000 C 
TER 
REMARK  Name = data/clean_protein_full.pdb
REMARK                            x       y       z     vdW  Elec       q    Type
REMARK                         _______ _______ _______ _____ _____    ______ ____
ATOM      1  CA  SER B  24       9.070 -12.166  -5.772  0.00  0.00    +0.000 C 
TER 
REMARK  Name = data/clean_protein_full.pdb
REMARK                            x       y       z     vdW  Elec       q    Type
REMARK                         _______ _______ _______ _____ _____    ______ ____
ATOM      1  CA  GLU B  25       8.757 -13.926  -2.414  0.00  0.00    +0.000 C 
TER 
REMARK  Name = data/clean_protein_full.pdb
REMARK                            x       y       z     vdW  Elec       q    Type
REMARK                         _______ _______ _______ _____ _____    ______ ____
ATOM      1  CA  GLY B  26       4.973 -14.326  -2.528  0.00  0.00    +0.000 C 
TER 
REMARK  Name = data/clean_protein_full.pdb
REMARK                            x       y       z     vdW  Elec       q    Type
REMARK                         _______ _______ _______ _____ _____    ______ ____
ATOM      1  CA  PHE B  27       4.898 -11.619   0.126  0.00  0.00    +0.000 C 
TER 
REMARK  Name = data/clean_protein_full.pdb
REMARK                            x       y       z     vdW  Elec       q    Type
REMARK                         _______ _______ _______ _____ _____    ______ ____
ATOM      1  CA  THR B  28       5.782 -12.184   3.822  0.00  0.00    +0.000 C 
TER 
REMARK  Name = data/clean_protein_full.pdb
REMARK                            x       y       z     vdW  Elec       q    Type
REMARK                         _______ _______ _______ _____ _____    ______ ____
ATOM      1  CA  ARG B  29       9.167 -13.203   2.484  0.00  0.00    +0.000 C 
TER 
REMARK  Name = data/clean_protein_full.pdb
REMARK                            x       y       z     vdW  Elec       q    Type
REMARK                         _______ _______ _______ _____ _____    ______ ____
ATOM      1  CA  LEU B  30      12.237 -10.880   2.757  0.00  0.00    +0.000 C 
TER 
REMARK  Name = data/clean_protein_full.pdb
REMARK                            x       y       z     vdW  Elec       q    Type
REMARK                         _______ _______ _______ _____ _____    ______ ____
ATOM      1  CA  TRP B  31      12.495  -7.378   4.265  0.00  0.00    +0.000 C 
TER 
REMARK  Name = data/clean_protein_full.pdb
REMARK                            x       y       z     vdW  Elec       q    Type
REMARK                         _______ _______ _______ _____ _____    ______ ____
ATOM      1  CA  PRO B  32      14.447  -5.432   1.656  0.00  0.00    +0.000 C 
TER 
REMARK  Name = data/clean_protein_full.pdb
REMARK                            x       y       z     vdW  Elec       q    Type
REMARK                         _______ _______ _______ _____ _____    ______ ____
ATOM      1  CA  SER B  33      12.239  -6.992  -1.018  0.00  0.00    +0.000 C 
TER 
REMARK  Name = data/clean_protein_full.pdb
REMARK                            x       y       z     vdW  Elec       q    Type
REMARK                         _______ _______ _______ _____ _____    ______ ____
ATOM      1  CA  VAL B  34       8.840  -6.182   0.439  0.00  0.00    +0.000 C 
TER 
REMARK  Name = data/clean_protein_full.pdb
REMARK                            x       y       z     vdW  Elec       q    Type
REMARK                         _______ _______ _______ _____ _____    ______ ____
ATOM      1  CA  GLY B  35      10.007  -3.094   2.302  0.00  0.00    +0.000 C 
TER 
REMARK  Name = data/clean_protein_full.pdb
REMARK                            x       y       z     vdW  Elec       q    Type
REMARK                         _______ _______ _______ _____ _____    ______ ____
ATOM      1  CA  THR B  36      11.528  -2.014  -0.955  0.00  0.00    +0.000 C 
TER 
REMARK  Name = data/clean_protein_full.pdb
REMARK                            x       y       z     vdW  Elec       q    Type
REMARK                         _______ _______ _______ _____ _____    ______ ____
ATOM      1  CA  ILE B  37       8.120  -2.624  -2.546  0.00  0.00    +0.000 C 
TER 
REMARK  Name = data/clean_protein_full.pdb
REMARK                            x       y       z     vdW  Elec       q    Type
REMARK                         _______ _______ _______ _____ _____    ______ ____
ATOM      1  CA  ILE B  38       6.195   0.028  -0.604  0.00  0.00    +0.000 C 
TER 
REMARK  Name = data/clean_protein_full.pdb
REMARK                            x       y       z     vdW  Elec       q    Type
REMARK                         _______ _______ _______ _____ _____    ______ ____
ATOM      1  CA  CYS B  39       9.287   2.075  -1.391  0.00  0.00    +0.000 C 
TER 
REMARK  Name = data/clean_protein_full.pdb
REMARK                            x       y       z     vdW  Elec       q    Type
REMARK                         _______ _______ _______ _____ _____    ______ ____
ATOM      1  CA  TYR B  40       8.892   1.695  -5.138  0.00  0.00    +0.000 C 
TER 
REMARK  Name = data/clean_protein_full.pdb
REMARK                            x       y       z     vdW  Elec       q    Type
REMARK                         _______ _______ _______ _____ _____    ______ ____
ATOM      1  CA  CYS B  41       5.177   2.048  -4.540  0.00  0.00    +0.000 C 
TER 
REMARK  Name = data/clean_protein_full.pdb
REMARK                            x       y       z     vdW  Elec       q    Type
REMARK                         _______ _______ _______ _____ _____    ______ ____
ATOM      1  CA  ALA B  42       5.806   5.239  -2.670  0.00  0.00    +0.000 C 
TER 
REMARK  Name = data/clean_protein_full.pdb
REMARK                            x       y       z     vdW  Elec       q    Type
REMARK                         _______ _______ _______ _____ _____    ______ ____
ATOM      1  CA  SER B  43       7.716   5.988  -5.922  0.00  0.00    +0.000 C 
TER 
REMARK  Name = data/clean_protein_full.pdb
REMARK                            x       y       z     vdW  Elec       q    Type
REMARK                         _______ _______ _______ _____ _____    ______ ____
ATOM      1  CA  PHE B  44       4.715   5.025  -7.898  0.00  0.00    +0.000 C 
TER 
REMARK  Name = data/clean_protein_full.pdb
REMARK                            x       y       z     vdW  Elec       q    Type
REMARK                         _______ _______ _______ _____ _____    ______ ____
ATOM      1  CA  TRP B  45       3.506   7.944  -5.872  0.00  0.00    +0.000 C 
TER 
REMARK  Name = data/clean_protein_full.pdb
REMARK                            x       y       z     vdW  Elec       q    Type
REMARK                         _______ _______ _______ _____ _____    ______ ____
ATOM      1  CA  LEU B  46       6.529   9.846  -7.188  0.00  0.00    +0.000 C 
TER 
REMARK  Name = data/clean_protein_full.pdb
REMARK                            x       y       z     vdW  Elec       q    Type
REMARK                         _______ _______ _______ _____ _____    ______ ____
ATOM      1  CA  LEU B  47       4.985   8.836 -10.502  0.00  0.00    +0.000 C 
TER 
REMARK  Name = data/clean_protein_full.pdb
REMARK                            x       y       z     vdW  Elec       q    Type
REMARK                         _______ _______ _______ _____ _____    ______ ____
ATOM      1  CA  ALA B  48       1.446   9.952  -9.658  0.00  0.00    +0.000 C 
TER 
REMARK  Name = data/clean_protein_full.pdb
REMARK                            x       y       z     vdW  Elec       q    Type
REMARK                         _______ _______ _______ _____ _____    ______ ____
ATOM      1  CA  GLN B  49       2.805  13.470  -9.018  0.00  0.00    +0.000 C 
TER 
REMARK  Name = data/clean_protein_full.pdb
REMARK                            x       y       z     vdW  Elec       q    Type
REMARK                         _______ _______ _______ _____ _____    ______ ____
ATOM      1  CA  THR B  50       6.079  14.003 -10.830  0.00  0.00    +0.000 C 
TER 
REMARK  Name = data/clean_protein_full.pdb
REMARK                            x       y       z     vdW  Elec       q    Type
REMARK                         _______ _______ _______ _____ _____    ______ ____
ATOM      1  CA  LEU B  51       3.732  12.914 -13.561  0.00  0.00    +0.000 C 
TER 
REMARK  Name = data/clean_protein_full.pdb
REMARK                            x       y       z     vdW  Elec       q    Type
REMARK                         _______ _______ _______ _____ _____    ______ ____
ATOM      1  CA  ALA B  52       1.821  16.153 -13.243  0.00  0.00    +0.000 C 
TER 
REMARK  Name = data/clean_protein_full.pdb
REMARK                            x       y       z     vdW  Elec       q    Type
REMARK                         _______ _______ _______ _____ _____    ______ ____
ATOM      1  CA  TYR B  53      -0.148  16.337 -16.470  0.00  0.00    +0.000 C 
TER 
REMARK  Name = data/clean_protein_full.pdb
REMARK                            x       y       z     vdW  Elec       q    Type
REMARK                         _______ _______ _______ _____ _____    ______ ____
ATOM      1  CA  ILE B  54       1.765  18.752 -18.672  0.00  0.00    +0.000 C 
TER 
REMARK  Name = data/clean_protein_full.pdb
REMARK                            x       y       z     vdW  Elec       q    Type
REMARK                         _______ _______ _______ _____ _____    ______ ____
ATOM      1  CA  PRO B  55       2.943  16.443 -21.530  0.00  0.00    +0.000 C 
TER 
REMARK  Name = data/clean_protein_full.pdb
REMARK                            x       y       z     vdW  Elec       q    Type
REMARK                         _______ _______ _______ _____ _____    ______ ____
ATOM      1  CA  THR B  56       0.259  13.809 -20.936  0.00  0.00    +0.000 C 
TER 
REMARK  Name = data/clean_protein_full.pdb
REMARK                            x       y       z     vdW  Elec       q    Type
REMARK                         _______ _______ _______ _____ _____    ______ ____
ATOM      1  CA  GLY B  57      -0.515  11.188 -23.585  0.00  0.00    +0.000 C 
TER 
REMARK  Name = data/clean_protein_full.pdb
REMARK                            x       y       z     vdW  Elec       q    Type
REMARK                         _______ _______ _______ _____ _____    ______ ____
ATOM      1  CA  ILE B  58       2.723   9.246 -23.382  0.00  0.00    +0.000 C 
TER 
REMARK  Name = data/clean_protein_full.pdb
REMARK                            x       y       z     vdW  Elec       q    Type
REMARK                         _______ _______ _______ _____ _____    ______ ____
ATOM      1  CA  ALA B  59       1.606   5.573 -23.360  0.00  0.00    +0.000 C 
TER 
REMARK  Name = data/clean_protein_full.pdb
REMARK                            x       y       z     vdW  Elec       q    Type
REMARK                         _______ _______ _______ _____ _____    ______ ____
ATOM      1  CA  TYR B  60       4.792   4.174 -24.889  0.00  0.00    +0.000 C 
TER 
REMARK  Name = data/clean_protein_full.pdb
REMARK                            x       y       z     vdW  Elec       q    Type
REMARK                         _______ _______ _______ _____ _____    ______ ____
ATOM      1  CA  ALA B  61       7.439   6.721 -23.870  0.00  0.00    +0.000 C 
TER 
REMARK  Name = data/clean_protein_full.pdb
REMARK                            x       y       z     vdW  Elec       q    Type
REMARK                         _______ _______ _______ _____ _____    ______ ____
ATOM      1  CA  ILE B  62       5.823   6.013 -20.536  0.00  0.00    +0.000 C 
TER 
REMARK  Name = data/clean_protein_full.pdb
REMARK                            x       y       z     vdW  Elec       q    Type
REMARK                         _______ _______ _______ _____ _____    ______ ____
ATOM      1  CA  TRP B  63       6.284   2.487 -19.208  0.00  0.00    +0.000 C 
TER 
REMARK  Name = data/clean_protein_full.pdb
REMARK                            x       y       z     vdW  Elec       q    Type
REMARK                         _______ _______ _______ _____ _____    ______ ____
ATOM      1  CA  SER B  64       7.412   1.310 -22.610  0.00  0.00    +0.000 C 
TER 
REMARK  Name = data/clean_protein_full.pdb
REMARK                            x       y       z     vdW  Elec       q    Type
REMARK                         _______ _______ _______ _____ _____    ______ ____
ATOM      1  CA  GLY B  65      10.221   3.851 -22.537  0.00  0.00    +0.000 C 
TER 
REMARK  Name = data/clean_protein_full.pdb
REMARK                            x       y       z     vdW  Elec       q    Type
REMARK                         _______ _______ _______ _____ _____    ______ ____
ATOM      1  CA  VAL B  66      10.891   1.870 -19.416  0.00  0.00    +0.000 C 
TER 
REMARK  Name = data/clean_protein_full.pdb
REMARK                            x       y       z     vdW  Elec       q    Type
REMARK                         _______ _______ _______ _____ _____    ______ ____
ATOM      1  CA  GLY B  67      10.513  -1.069 -21.702  0.00  0.00    +0.000 C 
TER 
REMARK  Name = data/clean_protein_full.pdb
REMARK                            x       y       z     vdW  Elec       q    Type
REMARK                         _______ _______ _______ _____ _____    ______ ____
ATOM      1  CA  ILE B  68      13.839   0.488 -22.603  0.00  0.00    +0.000 C 
TER 
REMARK  Name = data/clean_protein_full.pdb
REMARK                            x       y       z     vdW  Elec       q    Type
REMARK                         _______ _______ _______ _____ _____    ______ ____
ATOM      1  CA  VAL B  69      15.422   0.261 -19.151  0.00  0.00    +0.000 C 
TER 
REMARK  Name = data/clean_protein_full.pdb
REMARK                            x       y       z     vdW  Elec       q    Type
REMARK                         _______ _______ _______ _____ _____    ______ ____
ATOM      1  CA  LEU B  70      13.453  -2.995 -19.047  0.00  0.00    +0.000 C 
TER 
REMARK  Name = data/clean_protein_full.pdb
REMARK                            x       y       z     vdW  Elec       q    Type
REMARK                         _______ _______ _______ _____ _____    ______ ____
ATOM      1  CA  ILE B  71      16.174  -3.982 -21.490  0.00  0.00    +0.000 C 
TER 
REMARK  Name = data/clean_protein_full.pdb
REMARK                            x       y       z     vdW  Elec       q    Type
REMARK                         _______ _______ _______ _____ _____    ______ ____
ATOM      1  CA  SER B  72      19.157  -2.430 -19.681  0.00  0.00    +0.000 C 
TER 
REMARK  Name = data/clean_protein_full.pdb
REMARK                            x       y       z     vdW  Elec       q    Type
REMARK                         _______ _______ _______ _____ _____    ______ ____
ATOM      1  CA  LEU B  73      18.060  -5.123 -17.193  0.00  0.00    +0.000 C 
TER 
REMARK  Name = data/clean_protein_full.pdb
REMARK                            x       y       z     vdW  Elec       q    Type
REMARK                         _______ _______ _______ _____ _____    ______ ____
ATOM      1  CA  LEU B  74      17.266  -8.170 -19.365  0.00  0.00    +0.000 C 
TER 
REMARK  Name = data/clean_protein_full.pdb
REMARK                            x       y       z     vdW  Elec       q    Type
REMARK                         _______ _______ _______ _____ _____    ______ ____
ATOM      1  CA  SER B  75      20.773  -7.321 -20.466  0.00  0.00    +0.000 C 
TER 
REMARK  Name = data/clean_protein_full.pdb
REMARK                            x       y       z     vdW  Elec       q    Type
REMARK                         _______ _______ _______ _____ _____    ______ ____
ATOM      1  CA  TRP B  76      21.976  -6.579 -16.935  0.00  0.00    +0.000 C 
TER 
REMARK  Name = data/clean_protein_full.pdb
REMARK                            x       y       z     vdW  Elec       q    Type
REMARK                         _______ _______ _______ _____ _____    ______ ____
ATOM      1  CA  GLY B  77      20.949 -10.067 -15.835  0.00  0.00    +0.000 C 
TER 
REMARK  Name = data/clean_protein_full.pdb
REMARK                            x       y       z     vdW  Elec       q    Type
REMARK                         _______ _______ _______ _____ _____    ______ ____
ATOM      1  CA  PHE B  78      22.352 -11.487 -19.061  0.00  0.00    +0.000 C 
TER 
REMARK  Name = data/clean_protein_full.pdb
REMARK                            x       y       z     vdW  Elec       q    Type
REMARK                         _______ _______ _______ _____ _____    ______ ____
ATOM      1  CA  PHE B  79      25.116  -9.115 -20.278  0.00  0.00    +0.000 C 
TER 
REMARK  Name = data/clean_protein_full.pdb
REMARK                            x       y       z     vdW  Elec       q    Type
REMARK                         _______ _______ _______ _____ _____    ______ ____
ATOM      1  CA  GLY B  80      23.939  -6.772 -23.034  0.00  0.00    +0.000 C 
TER 
REMARK  Name = data/clean_protein_full.pdb
REMARK                            x       y       z     vdW  Elec       q    Type
REMARK                         _______ _______ _______ _____ _____    ______ ____
ATOM      1  CA  GLN B  81      21.230  -8.554 -25.069  0.00  0.00    +0.000 C 
TER 
REMARK  Name = data/clean_protein_full.pdb
REMARK                            x       y       z     vdW  Elec       q    Type
REMARK                         _______ _______ _______ _____ _____    ______ ____
ATOM      1  CA  ARG B  82      18.511 -11.202 -24.535  0.00  0.00    +0.000 C 
TER 
REMARK  Name = data/clean_protein_full.pdb
REMARK                            x       y       z     vdW  Elec       q    Type
REMARK                         _______ _______ _______ _____ _____    ______ ____
ATOM      1  CA  LEU B  83      17.772 -13.441 -27.556  0.00  0.00    +0.000 C 
TER 
REMARK  Name = data/clean_protein_full.pdb
REMARK                            x       y       z     vdW  Elec       q    Type
REMARK                         _______ _______ _______ _____ _____    ______ ____
ATOM      1  CA  ASP B  84      19.142 -12.499 -31.018  0.00  0.00    +0.000 C 
TER 
REMARK  Name = data/clean_protein_full.pdb
REMARK                            x       y       z     vdW  Elec       q    Type
REMARK                         _______ _______ _______ _____ _____    ______ ____
ATOM      1  CA  LEU B  85      16.106 -11.563 -33.136  0.00  0.00    +0.000 C 
TER 
REMARK  Name = data/clean_protein_full.pdb
REMARK                            x       y       z     vdW  Elec       q    Type
REMARK                         _______ _______ _______ _____ _____    ______ ____
ATOM      1  CA  PRO B  86      13.670 -10.158 -30.543  0.00  0.00    +0.000 C 
TER 
REMARK  Name = data/clean_protein_full.pdb
REMARK                            x       y       z     vdW  Elec       q    Type
REMARK                         _______ _______ _______ _____ _____    ______ ____
ATOM      1  CA  ALA B  87      16.701  -8.965 -28.575  0.00  0.00    +0.000 C 
TER 
REMARK  Name = data/clean_protein_full.pdb
REMARK                            x       y       z     vdW  Elec       q    Type
REMARK                         _______ _______ _______ _____ _____    ______ ____
ATOM      1  CA  ILE B  88      19.002  -6.909 -30.801  0.00  0.00    +0.000 C 
TER 
REMARK  Name = data/clean_protein_full.pdb
REMARK                            x       y       z     vdW  Elec       q    Type
REMARK                         _______ _______ _______ _____ _____    ______ ____
ATOM      1  CA  ILE B  89      15.941  -5.952 -32.793  0.00  0.00    +0.000 C 
TER 
REMARK  Name = data/clean_protein_full.pdb
REMARK                            x       y       z     vdW  Elec       q    Type
REMARK                         _______ _______ _______ _____ _____    ______ ____
ATOM      1  CA  GLY B  90      14.213  -5.132 -29.555  0.00  0.00    +0.000 C 
TER 
REMARK  Name = data/clean_protein_full.pdb
REMARK                            x       y       z     vdW  Elec       q    Type
REMARK                         _______ _______ _______ _____ _____    ______ ____
ATOM      1  CA  MET B  91      16.618  -2.242 -29.242  0.00  0.00    +0.000 C 
TER 
REMARK  Name = data/clean_protein_full.pdb
REMARK                            x       y       z     vdW  Elec       q    Type
REMARK                         _______ _______ _______ _____ _____    ______ ____
ATOM      1  CA  MET B  92      17.182  -1.086 -32.903  0.00  0.00    +0.000 C 
TER 
REMARK  Name = data/clean_protein_full.pdb
REMARK                            x       y       z     vdW  Elec       q    Type
REMARK                         _______ _______ _______ _____ _____    ______ ____
ATOM      1  CA  LEU B  93      13.426  -0.607 -33.099  0.00  0.00    +0.000 C 
TER 
REMARK  Name = data/clean_protein_full.pdb
REMARK                            x       y       z     vdW  Elec       q    Type
REMARK                         _______ _______ _______ _____ _____    ______ ____
ATOM      1  CA  ILE B  94      13.558   1.008 -29.711  0.00  0.00    +0.000 C 
TER 
REMARK  Name = data/clean_protein_full.pdb
REMARK                            x       y       z     vdW  Elec       q    Type
REMARK                         _______ _______ _______ _____ _____    ______ ____
ATOM      1  CA  CYS B  95      16.264   2.841 -31.573  0.00  0.00    +0.000 C 
TER 
REMARK  Name = data/clean_protein_full.pdb
REMARK                            x       y       z     vdW  Elec       q    Type
REMARK                         _______ _______ _______ _____ _____    ______ ____
ATOM      1  CA  ALA B  96      13.090   3.736 -33.441  0.00  0.00    +0.000 C 
TER 
REMARK  Name = data/clean_protein_full.pdb
REMARK                            x       y       z     vdW  Elec       q    Type
REMARK                         _______ _______ _______ _____ _____    ______ ____
ATOM      1  CA  GLY B  97      11.414   4.360 -30.113  0.00  0.00    +0.000 C 
TER 
REMARK  Name = data/clean_protein_full.pdb
REMARK                            x       y       z     vdW  Elec       q    Type
REMARK                         _______ _______ _______ _____ _____    ______ ____
ATOM      1  CA  VAL B  98      14.419   6.230 -28.644  0.00  0.00    +0.000 C 
TER 
REMARK  Name = data/clean_protein_full.pdb
REMARK                            x       y       z     vdW  Elec       q    Type
REMARK                         _______ _______ _______ _____ _____    ______ ____
ATOM      1  CA  LEU B  99      14.978   8.387 -31.752  0.00  0.00    +0.000 C 
TER 
REMARK  Name = data/clean_protein_full.pdb
REMARK                            x       y       z     vdW  Elec       q    Type
REMARK                         _______ _______ _______ _____ _____    ______ ____
ATOM      1  CA  ILE B 100      11.530   9.070 -33.223  0.00  0.00    +0.000 C 
TER 
REMARK  Name = data/clean_protein_full.pdb
REMARK                            x       y       z     vdW  Elec       q    Type
REMARK                         _______ _______ _______ _____ _____    ______ ____
ATOM      1  CA  ILE B 101      10.306   9.455 -29.670  0.00  0.00    +0.000 C 
TER 
REMARK  Name = data/clean_protein_full.pdb
REMARK                            x       y       z     vdW  Elec       q    Type
REMARK                         _______ _______ _______ _____ _____    ______ ____
ATOM      1  CA  ASN B 102      12.070  12.789 -29.607  0.00  0.00    +0.000 C 
TER 
